# poscar strain lammps  
 
17648 atoms 
3 atom types 

0.00000 134.0066268659875 xlo xhi
0.00000 116.05314314140742 ylo yhi 
0.00000000 100.00000 zlo zhi
-67.00331343299375 0.00000000 0.00000000  xy xz yz

Masses

 1 10.811000 # B
 2 12.01100000 # C
 3 14.003700 # N

Atoms # atomic 

1 0 1 0 0.0000000000 0.0000000000 10.0000000000
2 0 3 0 1.4429444367 0.0657760861 10.0000000000
3 0 1 0 2.1074528936 1.3482906676 10.0000000000
4 0 3 0 3.5503973304 1.4140667537 10.0000000000
5 0 1 0 4.3288333102 0.1973282582 10.0000000000
6 0 1 0 4.2149057872 2.6965813352 10.0000000000
7 0 1 0 -0.1139275230 2.4992530769 10.0000000000
8 0 3 0 5.7717777470 0.2631043443 10.0000000000
9 0 3 0 5.6578502240 2.7623574213 10.0000000000
10 0 3 0 1.3290169137 2.5650291630 10.0000000000
11 0 1 0 6.4362862039 1.5456189258 10.0000000000
12 0 3 0 7.8792306406 1.6113950119 10.0000000000
13 0 1 0 6.3223586808 4.0448720028 10.0000000000
14 0 1 0 1.9935253706 3.8475437445 10.0000000000
15 0 3 0 7.7653031176 4.1106480889 10.0000000000
16 0 3 0 3.4364698074 3.9133198306 10.0000000000
17 0 3 0 -0.8923635029 3.7159915724 10.0000000000
18 0 1 0 8.6576666205 0.3946565165 10.0000000000
19 0 1 0 8.5437390975 2.8939095934 10.0000000000
20 0 3 0 10.1006110572 0.4604326026 10.0000000000
21 0 3 0 9.9866835342 2.9596856795 10.0000000000
22 0 1 0 8.4298115745 5.3931626704 10.0000000000
23 0 1 0 4.1009782642 5.1958344121 10.0000000000
24 0 3 0 9.8727560112 5.4589387565 10.0000000000
25 0 3 0 5.5439227010 5.2616104982 10.0000000000
26 0 1 0 -0.2278550460 4.9985061539 10.0000000000
27 0 3 0 1.2150893907 5.0642822400 10.0000000000
28 0 1 0 10.7651195141 1.7429471841 10.0000000000
29 0 3 0 12.2080639509 1.8087232702 10.0000000000
30 0 1 0 10.6511919911 4.2422002610 10.0000000000
31 0 3 0 12.0941364278 4.3079763471 10.0000000000
32 0 1 0 10.5372644681 6.7414533380 10.0000000000
33 0 1 0 6.2084311578 6.5441250797 10.0000000000
34 0 3 0 11.9802089048 6.8072294240 10.0000000000
35 0 3 0 7.6513755946 6.6099011658 10.0000000000
36 0 1 0 1.8795978476 6.3467968215 10.0000000000
37 0 3 0 3.3225422843 6.4125729076 10.0000000000
38 0 1 0 -2.4492354627 6.1494685632 10.0000000000
39 0 3 0 -1.0062910259 6.2152446493 10.0000000000
40 0 1 0 12.9864999307 0.5919847747 10.0000000000
41 0 1 0 12.8725724077 3.0912378517 10.0000000000
42 0 3 0 14.4294443675 0.6577608608 10.0000000000
43 0 3 0 14.3155168445 3.1570139377 10.0000000000
44 0 1 0 12.7586448847 5.5904909286 10.0000000000
45 0 3 0 14.2015893215 5.6562670147 10.0000000000
46 0 1 0 12.6447173617 8.0897440056 10.0000000000
47 0 1 0 8.3158840515 7.8924157473 10.0000000000
48 0 3 0 14.0876617984 8.1555200916 10.0000000000
49 0 3 0 9.7588284882 7.9581918334 10.0000000000
50 0 1 0 3.9870507412 7.6950874891 10.0000000000
51 0 3 0 5.4299951780 7.7608635752 10.0000000000
52 0 1 0 -0.3417825690 7.4977592308 10.0000000000
53 0 3 0 1.1011618677 7.5635353169 10.0000000000
54 0 3 0 -3.2276714425 7.3662070587 10.0000000000
55 0 1 0 15.0939528244 1.9402754423 10.0000000000
56 0 3 0 16.5368972611 2.0060515284 10.0000000000
57 0 1 0 14.9800253013 4.4395285193 10.0000000000
58 0 3 0 16.4229697381 4.5053046053 10.0000000000
59 0 1 0 14.8660977783 6.9387815962 10.0000000000
60 0 3 0 16.3090422151 7.0045576823 10.0000000000
61 0 1 0 14.7521702553 9.4380346732 10.0000000000
62 0 1 0 10.4233369451 9.2407064149 10.0000000000
63 0 3 0 16.1951146921 9.5038107592 10.0000000000
64 0 3 0 11.8662813818 9.3064825010 10.0000000000
65 0 1 0 6.0945036348 9.0433781567 10.0000000000
66 0 3 0 7.5374480716 9.1091542428 10.0000000000
67 0 1 0 1.7656703246 8.8460498984 10.0000000000
68 0 3 0 3.2086147613 8.9118259845 10.0000000000
69 0 1 0 -2.5631629857 8.6487216402 10.0000000000
70 0 3 0 -1.1202185489 8.7144977263 10.0000000000
71 0 1 0 17.3153332410 0.7893130330 10.0000000000
72 0 1 0 17.2014057180 3.2885661099 10.0000000000
73 0 3 0 18.7582776777 0.8550891190 10.0000000000
74 0 3 0 18.6443501547 3.3543421960 10.0000000000
75 0 1 0 17.0874781950 5.7878191869 10.0000000000
76 0 3 0 18.5304226317 5.8535952729 10.0000000000
77 0 1 0 16.9735506719 8.2870722638 10.0000000000
78 0 3 0 18.4164951087 8.3528483499 10.0000000000
79 0 1 0 16.8596231489 10.7863253407 10.0000000000
80 0 1 0 12.5307898387 10.5889970825 10.0000000000
81 0 3 0 18.3025675857 10.8521014268 10.0000000000
82 0 3 0 13.9737342754 10.6547731686 10.0000000000
83 0 1 0 8.2019565284 10.3916688243 10.0000000000
84 0 3 0 9.6449009652 10.4574449103 10.0000000000
85 0 1 0 3.8731232182 10.1943405660 10.0000000000
86 0 3 0 5.3160676549 10.2601166521 10.0000000000
87 0 1 0 -0.4557100921 9.9970123078 10.0000000000
88 0 3 0 0.9872343447 10.0627883939 10.0000000000
89 0 1 0 -4.7845434023 9.7996840496 10.0000000000
90 0 3 0 -3.3415989655 9.8654601356 10.0000000000
91 0 1 0 19.4227861346 2.1376037006 10.0000000000
92 0 3 0 20.8657305713 2.2033797866 10.0000000000
93 0 1 0 19.3088586116 4.6368567775 10.0000000000
94 0 3 0 20.7518030483 4.7026328636 10.0000000000
95 0 1 0 19.1949310886 7.1361098544 10.0000000000
96 0 3 0 20.6378755253 7.2018859405 10.0000000000
97 0 1 0 19.0810035656 9.6353629314 10.0000000000
98 0 3 0 20.5239480023 9.7011390175 10.0000000000
99 0 1 0 18.9670760425 12.1346160083 10.0000000000
100 0 1 0 14.6382427323 11.9372877501 10.0000000000
101 0 3 0 20.4100204793 12.2003920944 10.0000000000
102 0 3 0 16.0811871691 12.0030638362 10.0000000000
103 0 1 0 10.3094094221 11.7399594919 10.0000000000
104 0 3 0 11.7523538588 11.8057355779 10.0000000000
105 0 1 0 5.9805761118 11.5426312336 10.0000000000
106 0 3 0 7.4235205486 11.6084073197 10.0000000000
107 0 1 0 1.6517428016 11.3453029754 10.0000000000
108 0 3 0 3.0946872383 11.4110790615 10.0000000000
109 0 1 0 -2.6770905087 11.1479747171 10.0000000000
110 0 3 0 -1.2341460719 11.2137508032 10.0000000000
111 0 3 0 -5.5629793822 11.0164225450 10.0000000000
112 0 1 0 21.6441665512 0.9866412912 10.0000000000
113 0 1 0 21.5302390282 3.4858943681 10.0000000000
114 0 3 0 23.0871109880 1.0524173773 10.0000000000
115 0 3 0 22.9731834650 3.5516704542 10.0000000000
116 0 1 0 21.4163115052 5.9851474451 10.0000000000
117 0 3 0 22.8592559420 6.0509235312 10.0000000000
118 0 1 0 21.3023839822 8.4844005220 10.0000000000
119 0 3 0 22.7453284189 8.5501766081 10.0000000000
120 0 1 0 21.1884564592 10.9836535990 10.0000000000
121 0 3 0 22.6314008959 11.0494296851 10.0000000000
122 0 1 0 21.0745289362 13.4829066759 10.0000000000
123 0 1 0 16.7456956259 13.2855784177 10.0000000000
124 0 3 0 22.5174733729 13.5486827620 10.0000000000
125 0 3 0 18.1886400627 13.3513545038 10.0000000000
126 0 1 0 12.4168623157 13.0882501595 10.0000000000
127 0 3 0 13.8598067524 13.1540262455 10.0000000000
128 0 1 0 8.0880290054 12.8909219012 10.0000000000
129 0 3 0 9.5309734422 12.9566979873 10.0000000000
130 0 1 0 3.7591956952 12.6935936430 10.0000000000
131 0 3 0 5.2021401319 12.7593697291 10.0000000000
132 0 1 0 -0.5696376151 12.4962653847 10.0000000000
133 0 3 0 0.8733068217 12.5620414708 10.0000000000
134 0 1 0 -4.8984709253 12.2989371265 10.0000000000
135 0 3 0 -3.4555264886 12.3647132126 10.0000000000
136 0 1 0 23.7516194448 2.3349319588 10.0000000000
137 0 3 0 25.1945638816 2.4007080449 10.0000000000
138 0 1 0 23.6376919218 4.8341850357 10.0000000000
139 0 3 0 25.0806363586 4.8999611218 10.0000000000
140 0 1 0 23.5237643988 7.3334381127 10.0000000000
141 0 3 0 24.9667088356 7.3992141988 10.0000000000
142 0 1 0 23.4098368758 9.8326911896 10.0000000000
143 0 3 0 24.8527813126 9.8984672757 10.0000000000
144 0 1 0 23.2959093528 12.3319442666 10.0000000000
145 0 3 0 24.7388537895 12.3977203527 10.0000000000
146 0 1 0 23.1819818298 14.8311973435 10.0000000000
147 0 1 0 18.8531485195 14.6338690853 10.0000000000
148 0 3 0 24.6249262665 14.8969734296 10.0000000000
149 0 3 0 20.2960929563 14.6996451714 10.0000000000
150 0 1 0 14.5243152093 14.4365408270 10.0000000000
151 0 3 0 15.9672596460 14.5023169131 10.0000000000
152 0 1 0 10.1954818990 14.2392125688 10.0000000000
153 0 3 0 11.6384263358 14.3049886549 10.0000000000
154 0 1 0 5.8666485888 14.0418843106 10.0000000000
155 0 3 0 7.3095930255 14.1076603967 10.0000000000
156 0 1 0 1.5378152786 13.8445560523 10.0000000000
157 0 3 0 2.9807597153 13.9103321384 10.0000000000
158 0 1 0 -2.7910180317 13.6472277941 10.0000000000
159 0 3 0 -1.3480735949 13.7130038802 10.0000000000
160 0 1 0 -7.1198513419 13.4498995359 10.0000000000
161 0 3 0 -5.6769069052 13.5156756219 10.0000000000
162 0 1 0 25.9729998615 1.1839695494 10.0000000000
163 0 1 0 25.8590723385 3.6832226264 10.0000000000
164 0 3 0 27.4159442982 1.2497456355 10.0000000000
165 0 3 0 27.3020167752 3.7489987125 10.0000000000
166 0 1 0 25.7451448155 6.1824757033 10.0000000000
167 0 3 0 27.1880892522 6.2482517894 10.0000000000
168 0 1 0 25.6312172924 8.6817287803 10.0000000000
169 0 3 0 27.0741617292 8.7475048664 10.0000000000
170 0 1 0 25.5172897694 11.1809818572 10.0000000000
171 0 3 0 26.9602342062 11.2467579433 10.0000000000
172 0 1 0 25.4033622464 13.6802349342 10.0000000000
173 0 3 0 26.8463066832 13.7460110203 10.0000000000
174 0 1 0 25.2894347234 16.1794880111 10.0000000000
175 0 1 0 20.9606014132 15.9821597529 10.0000000000
176 0 3 0 26.7323791601 16.2452640972 10.0000000000
177 0 3 0 22.4035458499 16.0479358390 10.0000000000
178 0 1 0 16.6317681029 15.7848314946 10.0000000000
179 0 3 0 18.0747125397 15.8506075807 10.0000000000
180 0 1 0 12.3029347927 15.5875032364 10.0000000000
181 0 3 0 13.7458792294 15.6532793225 10.0000000000
182 0 1 0 7.9741014824 15.3901749782 10.0000000000
183 0 3 0 9.4170459192 15.4559510642 10.0000000000
184 0 1 0 3.6452681722 15.1928467199 10.0000000000
185 0 3 0 5.0882126089 15.2586228060 10.0000000000
186 0 1 0 -0.6835651381 14.9955184617 10.0000000000
187 0 3 0 0.7593792987 15.0612945478 10.0000000000
188 0 1 0 -5.0123984483 14.7981902034 10.0000000000
189 0 3 0 -3.5694540116 14.8639662895 10.0000000000
190 0 3 0 -7.8982873218 14.6666380313 10.0000000000
191 0 1 0 28.1943802781 0.0330071401 10.0000000000
192 0 1 0 28.0804527551 2.5322602170 10.0000000000
193 0 3 0 29.6373247149 0.0987832262 10.0000000000
194 0 3 0 29.5233971918 2.5980363031 10.0000000000
195 0 1 0 27.9665252321 5.0315132940 10.0000000000
196 0 3 0 29.4094696688 5.0972893801 10.0000000000
197 0 1 0 27.8525977091 7.5307663709 10.0000000000
198 0 3 0 29.2955421458 7.5965424570 10.0000000000
199 0 1 0 27.7386701861 10.0300194479 10.0000000000
200 0 3 0 29.1816146228 10.0957955340 10.0000000000
201 0 1 0 27.6247426630 12.5292725248 10.0000000000
202 0 3 0 29.0676870998 12.5950486109 10.0000000000
203 0 1 0 27.5108151400 15.0285256018 10.0000000000
204 0 3 0 28.9537595768 15.0943016878 10.0000000000
205 0 1 0 27.3968876170 17.5277786787 10.0000000000
206 0 1 0 23.0680543068 17.3304504205 10.0000000000
207 0 3 0 28.8398320538 17.5935547648 10.0000000000
208 0 3 0 24.5109987435 17.3962265066 10.0000000000
209 0 1 0 18.7392209965 17.1331221622 10.0000000000
210 0 3 0 20.1821654333 17.1988982483 10.0000000000
211 0 1 0 14.4103876863 16.9357939040 10.0000000000
212 0 3 0 15.8533321230 17.0015699901 10.0000000000
213 0 1 0 10.0815543760 16.7384656458 10.0000000000
214 0 3 0 11.5244988128 16.8042417318 10.0000000000
215 0 1 0 5.7527210658 16.5411373875 10.0000000000
216 0 3 0 7.1956655025 16.6069134736 10.0000000000
217 0 1 0 1.4238877555 16.3438091293 10.0000000000
218 0 3 0 2.8668321923 16.4095852154 10.0000000000
219 0 1 0 -2.9049455547 16.1464808710 10.0000000000
220 0 3 0 -1.4620011180 16.2122569571 10.0000000000
221 0 1 0 -7.2337788650 15.9491526128 10.0000000000
222 0 3 0 -5.7908344282 16.0149286989 10.0000000000
223 0 1 0 30.3018331717 1.3812978077 10.0000000000
224 0 3 0 31.7447776085 1.4470738938 10.0000000000
225 0 1 0 30.1879056487 3.8805508846 10.0000000000
226 0 3 0 31.6308500855 3.9463269707 10.0000000000
227 0 1 0 30.0739781257 6.3798039616 10.0000000000
228 0 3 0 31.5169225624 6.4455800476 10.0000000000
229 0 1 0 29.9600506027 8.8790570385 10.0000000000
230 0 3 0 31.4029950394 8.9448331246 10.0000000000
231 0 1 0 29.8461230797 11.3783101155 10.0000000000
232 0 3 0 31.2890675164 11.4440862015 10.0000000000
233 0 1 0 29.7321955567 13.8775631924 10.0000000000
234 0 3 0 31.1751399934 13.9433392785 10.0000000000
235 0 1 0 29.6182680336 16.3768162694 10.0000000000
236 0 3 0 31.0612124704 16.4425923554 10.0000000000
237 0 1 0 29.5043405106 18.8760693463 10.0000000000
238 0 1 0 25.1755072004 18.6787410881 10.0000000000
239 0 3 0 30.9472849474 18.9418454324 10.0000000000
240 0 3 0 26.6184516371 18.7445171741 10.0000000000
241 0 1 0 20.8466738901 18.4814128298 10.0000000000
242 0 3 0 22.2896183269 18.5471889159 10.0000000000
243 0 1 0 16.5178405799 18.2840845716 10.0000000000
244 0 3 0 17.9607850166 18.3498606577 10.0000000000
245 0 1 0 12.1890072696 18.0867563134 10.0000000000
246 0 3 0 13.6319517064 18.1525323994 10.0000000000
247 0 1 0 7.8601739594 17.8894280551 10.0000000000
248 0 3 0 9.3031183961 17.9552041412 10.0000000000
249 0 1 0 3.5313406492 17.6920997969 10.0000000000
250 0 3 0 4.9742850859 17.7578758830 10.0000000000
251 0 1 0 -0.7974926611 17.4947715386 10.0000000000
252 0 3 0 0.6454517757 17.5605476247 10.0000000000
253 0 1 0 -5.1263259713 17.2974432804 10.0000000000
254 0 3 0 -3.6833815346 17.3632193665 10.0000000000
255 0 1 0 -9.4551592816 17.1001150222 10.0000000000
256 0 3 0 -8.0122148448 17.1658911082 10.0000000000
257 0 1 0 32.5232135884 0.2303353983 10.0000000000
258 0 1 0 32.4092860653 2.7295884753 10.0000000000
259 0 3 0 33.9661580251 0.2961114844 10.0000000000
260 0 3 0 33.8522305021 2.7953645613 10.0000000000
261 0 1 0 32.2953585423 5.2288415522 10.0000000000
262 0 3 0 33.7383029791 5.2946176383 10.0000000000
263 0 1 0 32.1814310193 7.7280946292 10.0000000000
264 0 3 0 33.6243754561 7.7938707152 10.0000000000
265 0 1 0 32.0675034963 10.2273477061 10.0000000000
266 0 3 0 33.5104479330 10.2931237922 10.0000000000
267 0 1 0 31.9535759733 12.7266007831 10.0000000000
268 0 3 0 33.3965204100 12.7923768691 10.0000000000
269 0 1 0 31.8396484503 15.2258538600 10.0000000000
270 0 3 0 33.2825928870 15.2916299461 10.0000000000
271 0 1 0 31.7257209273 17.7251069370 10.0000000000
272 0 3 0 33.1686653640 17.7908830230 10.0000000000
273 0 1 0 31.6117934042 20.2243600139 10.0000000000
274 0 1 0 27.2829600940 20.0270317557 10.0000000000
275 0 3 0 33.0547378410 20.2901361000 10.0000000000
276 0 3 0 28.7259045307 20.0928078417 10.0000000000
277 0 1 0 22.9541267838 19.8297034974 10.0000000000
278 0 3 0 24.3970712205 19.8954795835 10.0000000000
279 0 1 0 18.6252934735 19.6323752392 10.0000000000
280 0 3 0 20.0682379103 19.6981513253 10.0000000000
281 0 1 0 14.2964601633 19.4350469809 10.0000000000
282 0 3 0 15.7394046000 19.5008230670 10.0000000000
283 0 1 0 9.9676268530 19.2377187227 10.0000000000
284 0 3 0 11.4105712898 19.3034948088 10.0000000000
285 0 1 0 5.6387935428 19.0403904645 10.0000000000
286 0 3 0 7.0817379795 19.1061665505 10.0000000000
287 0 1 0 1.3099602325 18.8430622062 10.0000000000
288 0 3 0 2.7529046693 18.9088382923 10.0000000000
289 0 1 0 -3.0188730777 18.6457339480 10.0000000000
290 0 3 0 -1.5759286410 18.7115100341 10.0000000000
291 0 1 0 -7.3477063880 18.4484056897 10.0000000000
292 0 3 0 -5.9047619512 18.5141817758 10.0000000000
293 0 3 0 -10.2335952615 18.3168535176 10.0000000000
294 0 1 0 34.6306664820 1.5786260659 10.0000000000
295 0 3 0 36.0736109187 1.6444021520 10.0000000000
296 0 1 0 34.5167389590 4.0778791429 10.0000000000
297 0 3 0 35.9596833957 4.1436552289 10.0000000000
298 0 1 0 34.4028114359 6.5771322198 10.0000000000
299 0 3 0 35.8457558727 6.6429083059 10.0000000000
300 0 1 0 34.2888839129 9.0763852968 10.0000000000
301 0 3 0 35.7318283497 9.1421613828 10.0000000000
302 0 1 0 34.1749563899 11.5756383737 10.0000000000
303 0 3 0 35.6179008267 11.6414144598 10.0000000000
304 0 1 0 34.0610288669 14.0748914507 10.0000000000
305 0 3 0 35.5039733037 14.1406675367 10.0000000000
306 0 1 0 33.9471013439 16.5741445276 10.0000000000
307 0 3 0 35.3900457806 16.6399206137 10.0000000000
308 0 1 0 33.8331738209 19.0733976045 10.0000000000
309 0 3 0 35.2761182576 19.1391736906 10.0000000000
310 0 1 0 33.7192462979 21.5726506815 10.0000000000
311 0 1 0 29.3904129876 21.3753224233 10.0000000000
312 0 3 0 35.1621907346 21.6384267676 10.0000000000
313 0 3 0 30.8333574244 21.4410985093 10.0000000000
314 0 1 0 25.0615796774 21.1779941650 10.0000000000
315 0 3 0 26.5045241141 21.2437702511 10.0000000000
316 0 1 0 20.7327463671 20.9806659068 10.0000000000
317 0 3 0 22.1756908039 21.0464419929 10.0000000000
318 0 1 0 16.4039130569 20.7833376485 10.0000000000
319 0 3 0 17.8468574936 20.8491137346 10.0000000000
320 0 1 0 12.0750797466 20.5860093903 10.0000000000
321 0 3 0 13.5180241834 20.6517854764 10.0000000000
322 0 1 0 7.7462464364 20.3886811321 10.0000000000
323 0 3 0 9.1891908731 20.4544572181 10.0000000000
324 0 1 0 3.4174131261 20.1913528738 10.0000000000
325 0 3 0 4.8603575629 20.2571289599 10.0000000000
326 0 1 0 -0.9114201841 19.9940246156 10.0000000000
327 0 3 0 0.5315242526 20.0598007017 10.0000000000
328 0 1 0 -5.2402534944 19.7966963573 10.0000000000
329 0 3 0 -3.7973090576 19.8624724434 10.0000000000
330 0 1 0 -9.5690868046 19.5993680991 10.0000000000
331 0 3 0 -8.1261423678 19.6651441852 10.0000000000
332 0 1 0 36.8520468986 0.4276636566 10.0000000000
333 0 1 0 36.7381193756 2.9269167335 10.0000000000
334 0 3 0 38.2949913353 0.4934397426 10.0000000000
335 0 3 0 38.1810638123 2.9926928196 10.0000000000
336 0 1 0 36.6241918526 5.4261698105 10.0000000000
337 0 3 0 38.0671362893 5.4919458965 10.0000000000
338 0 1 0 36.5102643296 7.9254228874 10.0000000000
339 0 3 0 37.9532087663 7.9911989735 10.0000000000
340 0 1 0 36.3963368065 10.4246759643 10.0000000000
341 0 3 0 37.8392812433 10.4904520504 10.0000000000
342 0 1 0 36.2824092835 12.9239290413 10.0000000000
343 0 3 0 37.7253537203 12.9897051274 10.0000000000
344 0 1 0 36.1684817605 15.4231821182 10.0000000000
345 0 3 0 37.6114261973 15.4889582043 10.0000000000
346 0 1 0 36.0545542375 17.9224351952 10.0000000000
347 0 3 0 37.4974986743 17.9882112813 10.0000000000
348 0 1 0 35.9406267145 20.4216882721 10.0000000000
349 0 3 0 37.3835711512 20.4874643582 10.0000000000
350 0 1 0 35.8266991915 22.9209413491 10.0000000000
351 0 1 0 31.4978658812 22.7236130908 10.0000000000
352 0 3 0 37.2696436282 22.9867174352 10.0000000000
353 0 3 0 32.9408103180 22.7893891769 10.0000000000
354 0 1 0 27.1690325710 22.5262848326 10.0000000000
355 0 3 0 28.6119770077 22.5920609187 10.0000000000
356 0 1 0 22.8401992607 22.3289565744 10.0000000000
357 0 3 0 24.2831436975 22.3947326604 10.0000000000
358 0 1 0 18.5113659505 22.1316283161 10.0000000000
359 0 3 0 19.9543103872 22.1974044022 10.0000000000
360 0 1 0 14.1825326402 21.9343000579 10.0000000000
361 0 3 0 15.6254770770 22.0000761440 10.0000000000
362 0 1 0 9.8536993300 21.7369717997 10.0000000000
363 0 3 0 11.2966437668 21.8027478857 10.0000000000
364 0 1 0 5.5248660198 21.5396435414 10.0000000000
365 0 3 0 6.9678104565 21.6054196275 10.0000000000
366 0 1 0 1.1960327095 21.3423152832 10.0000000000
367 0 3 0 2.6389771463 21.4080913693 10.0000000000
368 0 1 0 -3.1328006007 21.1449870249 10.0000000000
369 0 3 0 -1.6898561640 21.2107631110 10.0000000000
370 0 1 0 -7.4616339110 20.9476587667 10.0000000000
371 0 3 0 -6.0186894742 21.0134348528 10.0000000000
372 0 1 0 -11.7904672212 20.7503305085 10.0000000000
373 0 3 0 -10.3475227845 20.8161065945 10.0000000000
374 0 1 0 38.9594997922 1.7759543242 10.0000000000
375 0 3 0 40.4024442290 1.8417304102 10.0000000000
376 0 1 0 38.8455722692 4.2752074011 10.0000000000
377 0 3 0 40.2885167060 4.3409834872 10.0000000000
378 0 1 0 38.7316447462 6.7744604780 10.0000000000
379 0 3 0 40.1745891829 6.8402365641 10.0000000000
380 0 1 0 38.6177172232 9.2737135550 10.0000000000
381 0 3 0 40.0606616599 9.3394896411 10.0000000000
382 0 1 0 38.5037897002 11.7729666319 10.0000000000
383 0 3 0 39.9467341369 11.8387427180 10.0000000000
384 0 1 0 38.3898621771 14.2722197089 10.0000000000
385 0 3 0 39.8328066139 14.3379957950 10.0000000000
386 0 1 0 38.2759346541 16.7714727858 10.0000000000
387 0 3 0 39.7188790909 16.8372488719 10.0000000000
388 0 1 0 38.1620071311 19.2707258628 10.0000000000
389 0 3 0 39.6049515679 19.3365019489 10.0000000000
390 0 1 0 38.0480796081 21.7699789397 10.0000000000
391 0 3 0 39.4910240449 21.8357550258 10.0000000000
392 0 1 0 37.9341520851 24.2692320167 10.0000000000
393 0 1 0 33.6053187749 24.0719037584 10.0000000000
394 0 3 0 39.3770965218 24.3350081028 10.0000000000
395 0 3 0 35.0482632116 24.1376798445 10.0000000000
396 0 1 0 29.2764854646 23.8745755002 10.0000000000
397 0 3 0 30.7194299014 23.9403515863 10.0000000000
398 0 1 0 24.9476521544 23.6772472420 10.0000000000
399 0 3 0 26.3905965911 23.7430233280 10.0000000000
400 0 1 0 20.6188188441 23.4799189837 10.0000000000
401 0 3 0 22.0617632809 23.5456950698 10.0000000000
402 0 1 0 16.2899855339 23.2825907255 10.0000000000
403 0 3 0 17.7329299706 23.3483668116 10.0000000000
404 0 1 0 11.9611522236 23.0852624672 10.0000000000
405 0 3 0 13.4040966604 23.1510385533 10.0000000000
406 0 1 0 7.6323189134 22.8879342090 10.0000000000
407 0 3 0 9.0752633501 22.9537102951 10.0000000000
408 0 1 0 3.3034856031 22.6906059508 10.0000000000
409 0 3 0 4.7464300399 22.7563820368 10.0000000000
410 0 1 0 -1.0253477071 22.4932776925 10.0000000000
411 0 3 0 0.4175967296 22.5590537786 10.0000000000
412 0 1 0 -5.3541810174 22.2959494343 10.0000000000
413 0 3 0 -3.9112365806 22.3617255204 10.0000000000
414 0 1 0 -9.6830143276 22.0986211760 10.0000000000
415 0 3 0 -8.2400698909 22.1643972621 10.0000000000
416 0 3 0 -12.5689032011 21.9670690039 10.0000000000
417 0 1 0 41.1808802088 0.6249919148 10.0000000000
418 0 1 0 41.0669526858 3.1242449917 10.0000000000
419 0 3 0 42.6238246456 0.6907680009 10.0000000000
420 0 3 0 42.5098971226 3.1900210778 10.0000000000
421 0 1 0 40.9530251628 5.6234980687 10.0000000000
422 0 3 0 42.3959695996 5.6892741548 10.0000000000
423 0 1 0 40.8390976398 8.1227511456 10.0000000000
424 0 3 0 42.2820420766 8.1885272317 10.0000000000
425 0 1 0 40.7251701168 10.6220042226 10.0000000000
426 0 3 0 42.1681145535 10.6877803087 10.0000000000
427 0 1 0 40.6112425938 13.1212572995 10.0000000000
428 0 3 0 42.0541870305 13.1870333856 10.0000000000
429 0 1 0 40.4973150708 15.6205103765 10.0000000000
430 0 3 0 41.9402595075 15.6862864626 10.0000000000
431 0 1 0 40.3833875478 18.1197634534 10.0000000000
432 0 3 0 41.8263319845 18.1855395395 10.0000000000
433 0 1 0 40.2694600247 20.6190165304 10.0000000000
434 0 3 0 41.7124044615 20.6847926165 10.0000000000
435 0 1 0 40.1555325017 23.1182696073 10.0000000000
436 0 3 0 41.5984769385 23.1840456934 10.0000000000
437 0 1 0 40.0416049787 25.6175226843 10.0000000000
438 0 1 0 35.7127716685 25.4201944260 10.0000000000
439 0 3 0 41.4845494155 25.6832987704 10.0000000000
440 0 3 0 37.1557161052 25.4859705121 10.0000000000
441 0 1 0 31.3839383582 25.2228661678 10.0000000000
442 0 3 0 32.8268827950 25.2886422539 10.0000000000
443 0 1 0 27.0551050480 25.0255379096 10.0000000000
444 0 3 0 28.4980494847 25.0913139956 10.0000000000
445 0 1 0 22.7262717377 24.8282096513 10.0000000000
446 0 3 0 24.1692161745 24.8939857374 10.0000000000
447 0 1 0 18.3974384275 24.6308813931 10.0000000000
448 0 3 0 19.8403828642 24.6966574792 10.0000000000
449 0 1 0 14.0686051172 24.4335531348 10.0000000000
450 0 3 0 15.5115495540 24.4993292209 10.0000000000
451 0 1 0 9.7397718070 24.2362248766 10.0000000000
452 0 3 0 11.1827162437 24.3020009627 10.0000000000
453 0 1 0 5.4109384967 24.0388966184 10.0000000000
454 0 3 0 6.8538829335 24.1046727044 10.0000000000
455 0 1 0 1.0821051865 23.8415683601 10.0000000000
456 0 3 0 2.5250496232 23.9073444462 10.0000000000
457 0 1 0 -3.2467281237 23.6442401019 10.0000000000
458 0 3 0 -1.8037836870 23.7100161880 10.0000000000
459 0 1 0 -7.5755614340 23.4469118436 10.0000000000
460 0 3 0 -6.1326169972 23.5126879297 10.0000000000
461 0 1 0 -11.9043947442 23.2495835854 10.0000000000
462 0 3 0 -10.4614503075 23.3153596715 10.0000000000
463 0 1 0 43.2883331025 1.9732825824 10.0000000000
464 0 3 0 44.7312775392 2.0390586685 10.0000000000
465 0 1 0 43.1744055794 4.4725356593 10.0000000000
466 0 3 0 44.6173500162 4.5383117454 10.0000000000
467 0 1 0 43.0604780564 6.9717887363 10.0000000000
468 0 3 0 44.5034224932 7.0375648224 10.0000000000
469 0 1 0 42.9465505334 9.4710418132 10.0000000000
470 0 3 0 44.3894949702 9.5368178993 10.0000000000
471 0 1 0 42.8326230104 11.9702948902 10.0000000000
472 0 3 0 44.2755674472 12.0360709763 10.0000000000
473 0 1 0 42.7186954874 14.4695479671 10.0000000000
474 0 3 0 44.1616399241 14.5353240532 10.0000000000
475 0 1 0 42.6047679644 16.9688010441 10.0000000000
476 0 3 0 44.0477124011 17.0345771302 10.0000000000
477 0 1 0 42.4908404414 19.4680541210 10.0000000000
478 0 3 0 43.9337848781 19.5338302071 10.0000000000
479 0 1 0 42.3769129184 21.9673071980 10.0000000000
480 0 3 0 43.8198573551 22.0330832841 10.0000000000
481 0 1 0 42.2629853953 24.4665602749 10.0000000000
482 0 3 0 43.7059298321 24.5323363610 10.0000000000
483 0 1 0 42.1490578723 26.9658133519 10.0000000000
484 0 1 0 37.8202245621 26.7684850936 10.0000000000
485 0 3 0 43.5920023091 27.0315894379 10.0000000000
486 0 3 0 39.2631689988 26.8342611797 10.0000000000
487 0 1 0 33.4913912518 26.5711568354 10.0000000000
488 0 3 0 34.9343356886 26.6369329215 10.0000000000
489 0 1 0 29.1625579416 26.3738285771 10.0000000000
490 0 3 0 30.6055023783 26.4396046632 10.0000000000
491 0 1 0 24.8337246313 26.1765003189 10.0000000000
492 0 3 0 26.2766690681 26.2422764050 10.0000000000
493 0 1 0 20.5048913211 25.9791720607 10.0000000000
494 0 3 0 21.9478357578 26.0449481468 10.0000000000
495 0 1 0 16.1760580109 25.7818438024 10.0000000000
496 0 3 0 17.6190024476 25.8476198885 10.0000000000
497 0 1 0 11.8472247006 25.5845155442 10.0000000000
498 0 3 0 13.2901691374 25.6502916303 10.0000000000
499 0 1 0 7.5183913904 25.3871872860 10.0000000000
500 0 3 0 8.9613358271 25.4529633720 10.0000000000
501 0 1 0 3.1895580801 25.1898590277 10.0000000000
502 0 3 0 4.6325025169 25.2556351138 10.0000000000
503 0 1 0 -1.1392752301 24.9925307695 10.0000000000
504 0 3 0 0.3036692066 25.0583068556 10.0000000000
505 0 1 0 -5.4681085404 24.7952025112 10.0000000000
506 0 3 0 -4.0251641036 24.8609785973 10.0000000000
507 0 1 0 -9.7969418506 24.5978742530 10.0000000000
508 0 3 0 -8.3539974139 24.6636503391 10.0000000000
509 0 3 0 -12.6828307241 24.4663220808 10.0000000000
510 0 1 0 45.5097135191 0.8223201730 10.0000000000
511 0 1 0 45.3957859961 3.3215732500 10.0000000000
512 0 3 0 46.9526579558 0.8880962591 10.0000000000
513 0 3 0 46.8387304328 3.3873493361 10.0000000000
514 0 1 0 45.2818584731 5.8208263269 10.0000000000
515 0 3 0 46.7248029098 5.8866024130 10.0000000000
516 0 1 0 45.1679309501 8.3200794039 10.0000000000
517 0 3 0 46.6108753868 8.3858554900 10.0000000000
518 0 1 0 45.0540034270 10.8193324808 10.0000000000
519 0 3 0 46.4969478638 10.8851085669 10.0000000000
520 0 1 0 44.9400759040 13.3185855578 10.0000000000
521 0 3 0 46.3830203408 13.3843616439 10.0000000000
522 0 1 0 44.8261483810 15.8178386347 10.0000000000
523 0 3 0 46.2690928178 15.8836147208 10.0000000000
524 0 1 0 44.7122208580 18.3170917117 10.0000000000
525 0 3 0 46.1551652947 18.3828677978 10.0000000000
526 0 1 0 44.5982933350 20.8163447886 10.0000000000
527 0 3 0 46.0412377717 20.8821208747 10.0000000000
528 0 1 0 44.4843658120 23.3155978656 10.0000000000
529 0 3 0 45.9273102487 23.3813739516 10.0000000000
530 0 1 0 44.3704382890 25.8148509425 10.0000000000
531 0 3 0 45.8133827257 25.8806270286 10.0000000000
532 0 1 0 44.2565107659 28.3141040195 10.0000000000
533 0 1 0 39.9276774557 28.1167757612 10.0000000000
534 0 3 0 45.6994552027 28.3798801055 10.0000000000
535 0 3 0 41.3706218924 28.1825518473 10.0000000000
536 0 1 0 35.5988441455 27.9194475030 10.0000000000
537 0 3 0 37.0417885822 27.9852235891 10.0000000000
538 0 1 0 31.2700108352 27.7221192447 10.0000000000
539 0 3 0 32.7129552720 27.7878953308 10.0000000000
540 0 1 0 26.9411775250 27.5247909865 10.0000000000
541 0 3 0 28.3841219617 27.5905670726 10.0000000000
542 0 1 0 22.6123442147 27.3274627283 10.0000000000
543 0 3 0 24.0552886515 27.3932388143 10.0000000000
544 0 1 0 18.2835109045 27.1301344700 10.0000000000
545 0 3 0 19.7264553412 27.1959105561 10.0000000000
546 0 1 0 13.9546775942 26.9328062118 10.0000000000
547 0 3 0 15.3976220310 26.9985822979 10.0000000000
548 0 1 0 9.6258442840 26.7354779535 10.0000000000
549 0 3 0 11.0687887207 26.8012540396 10.0000000000
550 0 1 0 5.2970109737 26.5381496953 10.0000000000
551 0 3 0 6.7399554105 26.6039257814 10.0000000000
552 0 1 0 0.9681776635 26.3408214371 10.0000000000
553 0 3 0 2.4111221002 26.4065975231 10.0000000000
554 0 1 0 -3.3606556468 26.1434931788 10.0000000000
555 0 3 0 -1.9177112100 26.2092692649 10.0000000000
556 0 1 0 -7.6894889570 25.9461649206 10.0000000000
557 0 3 0 -6.2465445203 26.0119410067 10.0000000000
558 0 1 0 -12.0183222673 25.7488366624 10.0000000000
559 0 3 0 -10.5753778305 25.8146127484 10.0000000000
560 0 1 0 47.6171664127 2.1706108406 10.0000000000
561 0 3 0 49.0601108495 2.2363869267 10.0000000000
562 0 1 0 47.5032388897 4.6698639176 10.0000000000
563 0 3 0 48.9461833264 4.7356400037 10.0000000000
564 0 1 0 47.3893113667 7.1691169945 10.0000000000
565 0 3 0 48.8322558034 7.2348930806 10.0000000000
566 0 1 0 47.2753838437 9.6683700715 10.0000000000
567 0 3 0 48.7183282804 9.7341461576 10.0000000000
568 0 1 0 47.1614563207 12.1676231484 10.0000000000
569 0 3 0 48.6044007574 12.2333992345 10.0000000000
570 0 1 0 47.0475287976 14.6668762254 10.0000000000
571 0 3 0 48.4904732344 14.7326523114 10.0000000000
572 0 1 0 46.9336012746 17.1661293023 10.0000000000
573 0 3 0 48.3765457114 17.2319053884 10.0000000000
574 0 1 0 46.8196737516 19.6653823793 10.0000000000
575 0 3 0 48.2626181884 19.7311584653 10.0000000000
576 0 1 0 46.7057462286 22.1646354562 10.0000000000
577 0 3 0 48.1486906654 22.2304115423 10.0000000000
578 0 1 0 46.5918187056 24.6638885332 10.0000000000
579 0 3 0 48.0347631423 24.7296646192 10.0000000000